version 3
run PureAlohaExperiment-1-20250227-22:59:42-9200
attr configname PureAlohaExperiment
attr datetime 20250227-22:59:42
attr datetimef 20250227-225942
attr experiment PureAlohaExperiment
attr inifile omnetpp.ini
attr iterationvars "$numHosts=10, $iaMean=2"
attr iterationvarsd numHosts=10/iaMean=2
attr iterationvarsf numHosts=10,iaMean=2-
attr measurement "$numHosts=10, $iaMean=2"
attr network Aloha
attr processid 9200
attr repetition 0
attr replication #0
attr resultdir results
attr runnumber 1
attr seedset 1
itervar iaMean 2
itervar numHosts 10
config description "Channel utilization in the function of packet generation frequency"
config repeat 1
config sim-time-limit 10s
config Aloha.numHosts 10
config Aloha.host[*].iaTime exponential(2s)
config network Aloha
config Aloha.numHosts 20
config Aloha.slotTime 0s
config Aloha.txRate 9.6kbps
config Aloha.host[*].pkLenBits 952b
config **.x "uniform(0m, 1000m)"
config **.y "uniform(0m, 1000m)"
config **.animationHoldTimeOnCollision 0s
config **.idleAnimationSpeed 1
config **.transmissionEdgeAnimationSpeed 1e-6
config **.midTransmissionAnimationSpeed 1e-1

vector 0 Aloha.server serverChannelState:vector ETV
attr enum IDLE=0,TRANSMISSION=1,COLLISION=2
attr recordingmode vector
attr source channelState
attr title "Channel state"
vector 1 Aloha.server channelUtilization:vector ETV
attr interpolationmode linear
attr recordingmode vector
attr source timeavg(receive)
attr title "channel utilization"
vector 2 Aloha.host[0] radioState:vector ETV
attr enum IDLE=0,TRANSMIT=1
attr recordingmode vector
attr source state
attr title "Radio state"
vector 3 Aloha.host[1] radioState:vector ETV
attr enum IDLE=0,TRANSMIT=1
attr recordingmode vector
attr source state
attr title "Radio state"
vector 4 Aloha.host[2] radioState:vector ETV
attr enum IDLE=0,TRANSMIT=1
attr recordingmode vector
attr source state
attr title "Radio state"
vector 5 Aloha.host[3] radioState:vector ETV
attr enum IDLE=0,TRANSMIT=1
attr recordingmode vector
attr source state
attr title "Radio state"
vector 6 Aloha.host[4] radioState:vector ETV
attr enum IDLE=0,TRANSMIT=1
attr recordingmode vector
attr source state
attr title "Radio state"
vector 7 Aloha.host[5] radioState:vector ETV
attr enum IDLE=0,TRANSMIT=1
attr recordingmode vector
attr source state
attr title "Radio state"
vector 8 Aloha.host[6] radioState:vector ETV
attr enum IDLE=0,TRANSMIT=1
attr recordingmode vector
attr source state
attr title "Radio state"
vector 9 Aloha.host[7] radioState:vector ETV
attr enum IDLE=0,TRANSMIT=1
attr recordingmode vector
attr source state
attr title "Radio state"
vector 10 Aloha.host[8] radioState:vector ETV
attr enum IDLE=0,TRANSMIT=1
attr recordingmode vector
attr source state
attr title "Radio state"
vector 11 Aloha.host[9] radioState:vector ETV
attr enum IDLE=0,TRANSMIT=1
attr recordingmode vector
attr source state
attr title "Radio state"
0	0	0	0
0	2	0.055540373161	1
0	4	0.154707039828	0
0	6	0.457449195799	1
0	8	0.521633873083	2
0	11	0.62080053975	0
0	13	1.172009623077	1
0	15	1.234889139405	2
0	18	1.334055806072	0
0	20	1.486982596536	1
0	22	1.528916721345	2
0	25	1.628083388012	0
0	27	1.636601641416	1
0	29	1.735768308083	0
0	31	1.778662284482	1
0	33	1.877828951149	0
0	35	2.069629821781	1
0	37	2.168796488448	0
0	39	2.220161283878	1
0	41	2.25681516251	2
0	43	2.311760455635	2
0	47	2.397866752427	2
0	50	2.497033419094	0
0	52	2.691819897344	1
0	54	2.790986564011	0
0	56	3.163004367131	1
0	58	3.262171033798	0
0	60	4.209396869956	1
0	62	4.308563536623	0
0	64	4.686150910799	1
0	66	4.722426444068	2
0	68	4.749433806069	2
0	72	4.848600472736	0
0	74	4.905935241737	1
0	76	5.005101908404	0
0	78	5.104164333667	1
0	80	5.148393569099	2
0	82	5.182860965586	2
0	86	5.282027632253	0
0	88	5.327235994077	1
0	90	5.426402660744	0
0	92	5.602624547534	1
0	94	5.701791214201	0
0	96	5.798653238661	1
0	98	5.823932450527	2
0	101	5.919822729217	2
0	104	6.018989395884	0
0	106	6.226040100195	1
0	108	6.325206766862	0
0	110	7.18410648577	1
0	112	7.283273152437	0
0	114	8.123412929687	1
0	116	8.143627179061	2
0	119	8.242793845728	0
0	121	8.376550536611	1
0	123	8.38250290992	2
0	126	8.481669576587	0
0	128	8.489797382542	1
0	130	8.588964049209	0
0	132	8.742583821578	1
0	134	8.790578531618	2
0	137	8.889745198285	0
0	139	9.029137738641	1
0	141	9.128304405308	0
0	143	9.219782125117	1
0	145	9.318948791784	0
0	147	9.321704849163	1
0	149	9.42087151583	0
0	151	9.537052495401	1
0	153	9.573682831231	2
0	155	9.625531200498	2
0	159	9.724697867165	0
0	161	9.886483354119	1
0	163	9.985650020786	0
1	4	0.055540373161	0
1	4	0.154707039828	0.64099647163601
1	29	1.636601641416	0.060593038744114
1	29	1.735768308083	0.11426256166242
1	33	1.778662284482	0.11150702135215
1	33	1.877828951149	0.15842763517889
1	37	2.069629821781	0.14374551278208
1	37	2.168796488448	0.18289713616784
1	54	2.691819897344	0.14736003216983
1	54	2.790986564011	0.17765522046169
1	58	3.163004367131	0.1567602430422
1	58	3.262171033798	0.18239387016728
1	62	4.209396869956	0.14135041631468
1	62	4.308563536623	0.16111324824818
1	76	4.905935241737	0.14149527714174
1	76	5.005101908404	0.15850493113915
1	90	5.327235994077	0.14892025324541
1	90	5.426402660744	0.16447360356421
1	94	5.602624547534	0.15930034083684
1	94	5.701791214201	0.17392195354332
1	108	6.226040100195	0.15927726945397
1	108	6.325206766862	0.17245813038902
1	112	7.18410648577	0.15183980575701
1	112	7.283273152437	0.16338807773615
1	130	8.489797382542	0.14016824505742
1	130	8.588964049209	0.15009571111079
1	141	9.029137738641	0.14277849158884
1	141	9.128304405308	0.15209104250848
1	145	9.219782125117	0.15058201099523
1	145	9.318948791784	0.15962100803864
1	149	9.321704849163	0.15957381445504
1	149	9.42087151583	0.1684203700269
1	163	9.886483354119	0.16048847804017
1	163	9.985650020786	0.1688255977157
2	0	0	0
2	42	2.311759421215	1
2	48	2.410926087882	0
2	55	3.163003332711	1
2	57	3.262169999378	0
2	65	4.722425409648	1
2	70	4.821592076315	0
2	146	9.321703814743	1
2	148	9.42087048141	0
3	0	0	0
3	19	1.486979381356	1
3	23	1.586146048023	0
3	109	7.18410327059	1
3	111	7.283269937257	0
3	120	8.376547321431	1
3	124	8.475713988098	0
3	150	9.537049280221	1
3	156	9.636215946888	0
4	0	0	0
4	5	0.457448813186	1
4	9	0.556615479853	0
4	30	1.778661901869	1
4	32	1.877828568536	0
4	77	5.104163951054	1
4	83	5.203330617721	0
4	131	8.742583438965	1
4	135	8.841750105632	0
5	0	0	0
5	12	1.172006929022	1
5	16	1.271173595689	0
5	46	2.397864058372	1
5	49	2.497030725039	0
5	51	2.691817203289	1
5	53	2.790983869956	0
5	79	5.148390875044	1
5	84	5.247557541711	0
5	87	5.327233300022	1
5	89	5.426399966689	0
5	95	5.798650544606	1
5	99	5.897817211273	0
6	0	0	0
6	59	4.209394592554	1
6	61	4.308561259221	0
6	127	8.48979510514	1
6	129	8.588961771807	0
6	138	9.029135461239	1
6	140	9.128302127906	0
6	160	9.886481076717	1
6	162	9.985647743384	0
7	0	0	0
7	7	0.521631699878	1
7	10	0.620798366545	0
7	40	2.256812989305	1
7	45	2.355979655972	0
7	91	5.602622374329	1
7	93	5.701789040996	0
7	97	5.823930277322	1
7	102	5.923096943989	0
7	115	8.143625005856	1
7	118	8.242791672523	0
8	0	0	0
8	1	0.055539255234	1
8	3	0.154705921901	0
8	14	1.234888021478	1
8	17	1.334054688145	0
8	26	1.636600523489	1
8	28	1.735767190156	0
8	67	4.749432688142	1
8	71	4.848599354809	0
8	122	8.382501791993	1
8	125	8.48166845866	0
9	0	0	0
9	21	1.528916504902	1
9	24	1.628083171569	0
9	34	2.069629605338	1
9	36	2.168796272005	0
9	63	4.686150694356	1
9	69	4.785317361023	0
9	133	8.790578315175	1
9	136	8.889744981842	0
9	152	9.573682614788	1
9	157	9.672849281455	0
10	0	0	0
10	38	2.2201606371	1
10	44	2.319327303767	0
10	142	9.219781478339	1
10	144	9.318948145006	0
10	154	9.62553055372	1
10	158	9.724697220387	0
11	0	0	0
11	73	4.905932960443	1
11	75	5.00509962711	0
11	81	5.182858684292	1
11	85	5.282025350959	0
11	100	5.919820447923	1
11	103	6.01898711459	0
11	105	6.226037818901	1
11	107	6.325204485568	0
11	113	8.123410648393	1
11	117	8.22257731506	0

