version 3
run PureAlohaExperiment-2-20250227-22:59:56-15808
attr configname PureAlohaExperiment
attr datetime 20250227-22:59:56
attr datetimef 20250227-225956
attr experiment PureAlohaExperiment
attr inifile omnetpp.ini
attr iterationvars "$numHosts=10, $iaMean=3"
attr iterationvarsd numHosts=10/iaMean=3
attr iterationvarsf numHosts=10,iaMean=3-
attr measurement "$numHosts=10, $iaMean=3"
attr network Aloha
attr processid 15808
attr repetition 0
attr replication #0
attr resultdir results
attr runnumber 2
attr seedset 2
itervar iaMean 3
itervar numHosts 10
config description "Channel utilization in the function of packet generation frequency"
config repeat 1
config sim-time-limit 10s
config Aloha.numHosts 10
config Aloha.host[*].iaTime exponential(3s)
config network Aloha
config Aloha.numHosts 20
config Aloha.slotTime 0s
config Aloha.txRate 9.6kbps
config Aloha.host[*].pkLenBits 952b
config **.x "uniform(0m, 1000m)"
config **.y "uniform(0m, 1000m)"
config **.animationHoldTimeOnCollision 0s
config **.idleAnimationSpeed 1
config **.transmissionEdgeAnimationSpeed 1e-6
config **.midTransmissionAnimationSpeed 1e-1

vector 0 Aloha.server serverChannelState:vector ETV
attr enum IDLE=0,TRANSMISSION=1,COLLISION=2
attr recordingmode vector
attr source channelState
attr title "Channel state"
vector 1 Aloha.server channelUtilization:vector ETV
attr interpolationmode linear
attr recordingmode vector
attr source timeavg(receive)
attr title "channel utilization"
vector 2 Aloha.host[0] radioState:vector ETV
attr enum IDLE=0,TRANSMIT=1
attr recordingmode vector
attr source state
attr title "Radio state"
vector 3 Aloha.host[1] radioState:vector ETV
attr enum IDLE=0,TRANSMIT=1
attr recordingmode vector
attr source state
attr title "Radio state"
vector 4 Aloha.host[2] radioState:vector ETV
attr enum IDLE=0,TRANSMIT=1
attr recordingmode vector
attr source state
attr title "Radio state"
vector 5 Aloha.host[3] radioState:vector ETV
attr enum IDLE=0,TRANSMIT=1
attr recordingmode vector
attr source state
attr title "Radio state"
vector 6 Aloha.host[4] radioState:vector ETV
attr enum IDLE=0,TRANSMIT=1
attr recordingmode vector
attr source state
attr title "Radio state"
vector 7 Aloha.host[5] radioState:vector ETV
attr enum IDLE=0,TRANSMIT=1
attr recordingmode vector
attr source state
attr title "Radio state"
vector 8 Aloha.host[6] radioState:vector ETV
attr enum IDLE=0,TRANSMIT=1
attr recordingmode vector
attr source state
attr title "Radio state"
vector 9 Aloha.host[7] radioState:vector ETV
attr enum IDLE=0,TRANSMIT=1
attr recordingmode vector
attr source state
attr title "Radio state"
vector 10 Aloha.host[8] radioState:vector ETV
attr enum IDLE=0,TRANSMIT=1
attr recordingmode vector
attr source state
attr title "Radio state"
vector 11 Aloha.host[9] radioState:vector ETV
attr enum IDLE=0,TRANSMIT=1
attr recordingmode vector
attr source state
attr title "Radio state"
0	0	0	0
0	2	0.43362182194	1
0	4	0.532788488607	0
0	6	0.611640999682	1
0	8	0.710807666349	0
0	10	0.897234790521	1
0	12	0.996401457188	0
0	14	2.0708213999	1
0	16	2.162037250932	2
0	19	2.259599566425	2
0	22	2.358766233092	0
0	24	2.651450570783	1
0	26	2.75061723745	0
0	28	2.943107419101	1
0	30	2.999606213968	2
0	32	3.0414618071	2
0	35	3.081152154559	2
0	39	3.180318821226	0
0	41	3.382864474189	1
0	43	3.446809107234	2
0	46	3.545975773901	0
0	48	3.739228442249	1
0	50	3.816266041853	2
0	53	3.91543270852	0
0	55	4.197901985725	1
0	57	4.208945902202	2
0	59	4.219972889593	2
0	63	4.31913955626	0
0	65	4.500510569329	1
0	67	4.599677235996	0
0	69	4.616033474575	1
0	71	4.715200141242	0
0	73	4.716121519749	1
0	75	4.815288186416	0
0	77	4.898746560823	1
0	79	4.99791322749	0
0	81	5.20985724825	1
0	83	5.222466302295	2
0	86	5.321632968962	0
0	88	5.583884926762	1
0	90	5.648347544386	2
0	93	5.747514211053	0
0	95	5.750363956963	1
0	97	5.84953062363	0
0	99	6.304726782118	1
0	101	6.364513869118	2
0	104	6.429613618946	2
0	107	6.528780285613	0
0	109	6.955024943527	1
0	111	7.054191610194	0
0	113	7.141077719253	1
0	115	7.217709291994	2
0	118	7.316875958661	0
0	120	7.324238015915	1
0	122	7.423404682582	0
0	124	7.730166497897	1
0	126	7.829333164564	0
0	128	7.884570077758	1
0	130	7.90286966454	2
0	133	8.002036331207	0
0	135	8.330849201537	1
0	137	8.35581775173	2
0	140	8.454984418397	0
0	142	9.137380558624	1
0	144	9.236547225291	0
0	146	9.698114281265	1
0	148	9.797280947932	0
0	150	9.808875618535	1
0	152	9.908042285202	0
0	154	9.922630128976	1
1	4	0.43362182194	0
1	4	0.532788488607	0.186127644999
1	8	0.611640999682	0.16213214404946
1	8	0.710807666349	0.27902531545941
1	12	0.897234790521	0.22104953511537
1	12	0.996401457188	0.29857443288029
1	26	2.651450570783	0.1122027328283
1	26	2.75061723745	0.14421005629839
1	67	4.500510569329	0.088138148007314
1	67	4.599677235996	0.10779741879598
1	71	4.616033474575	0.10741545442988
1	71	4.715200141242	0.12618764467658
1	75	4.716121519749	0.12616299166813
1	75	4.815288186416	0.14415890384863
1	79	4.898746560823	0.14170291482733
1	79	4.99791322749	0.15873291456371
1	97	5.750363956963	0.13796228191354
1	97	5.84953062363	0.15257634456987
1	111	6.955024943527	0.12832448585733
1	111	7.054191610194	0.14057835702066
1	122	7.324238015915	0.13539519940712
1	122	7.423404682582	0.14694515252503
1	126	7.730166497897	0.14111382123965
1	126	7.829333164564	0.15199251008885
1	144	9.137380558624	0.13023426050487
1	144	9.236547225291	0.13957235698867
1	148	9.698114281265	0.13292962211854
1	148	9.797280947932	0.14170598360059
1	152	9.808875618535	0.14153847875434
1	152	9.908042285202	0.15013056638107
2	0	0	0
2	18	2.25959672553	1
2	21	2.358763392197	0
2	27	2.943104578206	1
2	33	3.042271244873	0
3	0	0	0
3	42	3.446806535212	1
3	45	3.545973201879	0
3	82	5.222463730273	1
3	85	5.32163039694	0
3	145	9.698111709243	1
3	147	9.79727837591	0
4	0	0	0
4	1	0.433620822356	1
4	3	0.532787489023	0
4	98	6.304725782534	1
4	102	6.403892449201	0
4	108	6.955023943943	1
4	110	7.05419061061	0
4	123	7.730165498313	1
4	125	7.82933216498	0
4	149	9.808874618951	1
4	151	9.908041285618	0
5	0	0	0
5	13	2.070820945076	1
5	17	2.169987611743	0
5	47	3.739227987425	1
5	51	3.838394654092	0
5	56	4.208945447378	1
5	61	4.308112114045	0
5	72	4.716121064925	1
5	74	4.815287731592	0
5	87	5.583884471938	1
5	91	5.683051138605	0
5	103	6.429613164122	1
5	106	6.528779830789	0
5	129	7.902869209716	1
5	132	8.002035876383	0
6	0	0	0
6	15	2.162036883954	1
6	20	2.261203550621	0
6	127	7.88456971078	1
6	131	7.983736377447	0
7	0	0	0
7	23	2.65144869127	1
7	25	2.750615357937	0
7	29	2.999604334455	1
7	36	3.098771001122	0
7	80	5.209855368737	1
7	84	5.309022035404	0
7	89	5.648345664873	1
7	92	5.74751233154	0
7	134	8.330847322024	1
7	138	8.430013988691	0
8	0	0	0
8	5	0.611640350883	1
8	7	0.71080701755	0
8	34	3.08115150576	1
8	38	3.180318172427	0
8	40	3.38286382539	1
8	44	3.482030492057	0
8	64	4.50050992053	1
8	66	4.599676587197	0
8	119	7.324237367116	1
8	121	7.423404033783	0
9	0	0	0
9	49	3.816264942381	1
9	52	3.915431609048	0
9	58	4.219971790121	1
9	62	4.319138456788	0
9	100	6.364512769646	1
9	105	6.463679436313	0
9	136	8.355816652258	1
9	139	8.454983318925	0
9	153	9.922629029504	1
10	0	0	0
10	68	4.616031878293	1
10	70	4.71519854496	0
10	114	7.217707695712	1
10	117	7.316874362379	0
11	0	0	0
11	9	0.897232590139	1
11	11	0.996399256806	0
11	31	3.041459606718	1
11	37	3.140626273385	0
11	54	4.197899785343	1
11	60	4.29706645201	0
11	76	4.898744360441	1
11	78	4.997911027108	0
11	94	5.750361756581	1
11	96	5.849528423248	0
11	112	7.141075518871	1
11	116	7.240242185538	0
11	141	9.137378358242	1
11	143	9.236545024909	0

