version 3
run PureAlohaExperiment-0-20250227-22:59:30-11588
attr configname PureAlohaExperiment
attr datetime 20250227-22:59:30
attr datetimef 20250227-225930
attr experiment PureAlohaExperiment
attr inifile omnetpp.ini
attr iterationvars "$numHosts=10, $iaMean=1"
attr iterationvarsd numHosts=10/iaMean=1
attr iterationvarsf numHosts=10,iaMean=1-
attr measurement "$numHosts=10, $iaMean=1"
attr network Aloha
attr processid 11588
attr repetition 0
attr replication #0
attr resultdir results
attr runnumber 0
attr seedset 0
itervar iaMean 1
itervar numHosts 10
config description "Channel utilization in the function of packet generation frequency"
config repeat 1
config sim-time-limit 10s
config Aloha.numHosts 10
config Aloha.host[*].iaTime exponential(1s)
config network Aloha
config Aloha.numHosts 20
config Aloha.slotTime 0s
config Aloha.txRate 9.6kbps
config Aloha.host[*].pkLenBits 952b
config **.x "uniform(0m, 1000m)"
config **.y "uniform(0m, 1000m)"
config **.animationHoldTimeOnCollision 0s
config **.idleAnimationSpeed 1
config **.transmissionEdgeAnimationSpeed 1e-6
config **.midTransmissionAnimationSpeed 1e-1

vector 0 Aloha.server serverChannelState:vector ETV
attr enum IDLE=0,TRANSMISSION=1,COLLISION=2
attr recordingmode vector
attr source channelState
attr title "Channel state"
vector 1 Aloha.server channelUtilization:vector ETV
attr interpolationmode linear
attr recordingmode vector
attr source timeavg(receive)
attr title "channel utilization"
vector 2 Aloha.host[0] radioState:vector ETV
attr enum IDLE=0,TRANSMIT=1
attr recordingmode vector
attr source state
attr title "Radio state"
vector 3 Aloha.host[1] radioState:vector ETV
attr enum IDLE=0,TRANSMIT=1
attr recordingmode vector
attr source state
attr title "Radio state"
vector 4 Aloha.host[2] radioState:vector ETV
attr enum IDLE=0,TRANSMIT=1
attr recordingmode vector
attr source state
attr title "Radio state"
vector 5 Aloha.host[3] radioState:vector ETV
attr enum IDLE=0,TRANSMIT=1
attr recordingmode vector
attr source state
attr title "Radio state"
vector 6 Aloha.host[4] radioState:vector ETV
attr enum IDLE=0,TRANSMIT=1
attr recordingmode vector
attr source state
attr title "Radio state"
vector 7 Aloha.host[5] radioState:vector ETV
attr enum IDLE=0,TRANSMIT=1
attr recordingmode vector
attr source state
attr title "Radio state"
vector 8 Aloha.host[6] radioState:vector ETV
attr enum IDLE=0,TRANSMIT=1
attr recordingmode vector
attr source state
attr title "Radio state"
vector 9 Aloha.host[7] radioState:vector ETV
attr enum IDLE=0,TRANSMIT=1
attr recordingmode vector
attr source state
attr title "Radio state"
vector 10 Aloha.host[8] radioState:vector ETV
attr enum IDLE=0,TRANSMIT=1
attr recordingmode vector
attr source state
attr title "Radio state"
vector 11 Aloha.host[9] radioState:vector ETV
attr enum IDLE=0,TRANSMIT=1
attr recordingmode vector
attr source state
attr title "Radio state"
0	0	0	0
0	2	0.073687478407	1
0	4	0.091161698355	2
0	7	0.190328365022	0
0	9	0.193279733473	1
0	11	0.29244640014	0
0	13	0.41157974426	1
0	15	0.498872438892	2
0	18	0.598039105559	0
0	20	0.649576502277	1
0	22	0.653883469628	2
0	25	0.75267511896	2
0	28	0.839433701612	2
0	31	0.899974022609	2
0	34	0.999140689276	0
0	36	1.044613599981	1
0	38	1.143780266648	0
0	40	1.640849861954	1
0	42	1.740016528621	0
0	44	1.808370316876	1
0	46	1.907536983543	0
0	48	2.079934063579	1
0	50	2.103823364196	2
0	53	2.202990030863	0
0	55	2.52646644317	1
0	57	2.598254852912	2
0	60	2.697421519579	0
0	62	2.74901982371	1
0	64	2.793364394237	2
0	66	2.823295929017	2
0	70	2.892734001539	2
0	72	2.914065151436	2
0	76	3.013231818103	0
0	78	3.146630348706	1
0	80	3.245797015373	0
0	82	3.354018603514	1
0	84	3.453185270181	0
0	86	3.660916339603	1
0	88	3.719526004853	2
0	91	3.761572051547	2
0	93	3.78406647657	2
0	95	3.794783790726	2
0	100	3.893950457393	0
0	102	3.913962935253	1
0	104	3.930638832153	2
0	107	4.02980549882	0
0	109	4.123414192601	1
0	111	4.201230809546	2
0	113	4.21933288395	2
0	117	4.318499550617	0
0	119	4.396304438442	1
0	121	4.495471105109	0
0	123	4.497910298026	1
0	125	4.524927845268	2
0	127	4.562548041354	2
0	131	4.643063081136	2
0	134	4.742229747803	0
0	136	4.742354991985	1
0	138	4.783822237421	2
0	141	4.874549950275	2
0	144	4.909479899396	2
0	147	5.003658148098	2
0	150	5.053485518698	2
0	153	5.152652185365	0
0	155	5.225158549017	1
0	157	5.324325215684	0
0	159	5.335805810721	1
0	161	5.434972477388	0
0	163	5.518060324572	1
0	165	5.557871043892	2
0	167	5.591381864073	2
0	171	5.69054853074	0
0	173	5.703610686869	1
0	175	5.802777353536	0
0	177	5.829985581263	1
0	179	5.92915224793	0
0	181	5.968194543431	1
0	183	6.067361210098	0
0	185	6.10255620561	1
0	187	6.14021749336	2
0	190	6.214973068057	2
0	193	6.301499450493	2
0	195	6.306284098052	2
0	198	6.377309760277	2
0	202	6.476476426944	0
0	204	6.580111432088	1
0	206	6.640043114237	2
0	209	6.739209780904	0
0	211	6.866704164773	1
0	213	6.96587083144	0
0	215	6.975416486987	1
0	217	7.074583153654	0
0	219	7.212611842082	1
0	221	7.263469009555	2
0	224	7.362635676222	0
0	226	7.409274860061	1
0	228	7.464284896207	2
0	230	7.499578584711	2
0	234	7.587073872631	2
0	237	7.653238589898	2
0	240	7.741597640505	2
0	243	7.791588412978	2
0	246	7.890755079645	0
0	248	7.991857808682	1
0	250	8.015553623099	2
0	252	8.030567206643	2
0	256	8.12973387331	0
0	258	8.237368981466	1
0	260	8.255503309624	2
0	263	8.354669976291	0
0	265	8.418088617979	1
0	267	8.444503086499	2
0	270	8.530668332826	2
0	273	8.588971495067	2
0	276	8.688138161734	0
0	278	8.70082119854	1
0	280	8.719583298592	2
0	283	8.818749965259	0
0	285	8.896626084812	1
0	287	8.995792751479	0
0	289	9.110830498526	1
0	291	9.209997165193	0
0	293	9.394362061485	1
0	295	9.493528728152	0
0	297	9.525274530066	1
0	299	9.530857428562	2
0	302	9.630024095229	0
0	304	9.671903718833	1
0	306	9.746880876828	2
0	309	9.814353419179	2
0	311	9.837938746184	2
0	314	9.904718205212	2
0	318	9.944197841646	2
1	11	0.193279733473	0
1	11	0.29244640014	0.33909347702528
1	38	1.044613599981	0.094931433660067
1	38	1.143780266648	0.17340160441414
1	42	1.640849861954	0.12087232228415
1	42	1.740016528621	0.17097538736415
1	46	1.808370316876	0.16451276446239
1	46	1.907536983543	0.2079470385582
1	80	3.146630348706	0.12606077699312
1	80	3.245797015373	0.15276165791841
1	84	3.354018603514	0.14783261273969
1	84	3.453185270181	0.17230468493537
1	121	4.396304438442	0.13534094563589
1	121	4.495471105109	0.1544146654352
1	157	5.225158549017	0.13285083316746
1	157	5.324325215684	0.1490016671031
1	161	5.335805810721	0.14868107301469
1	161	5.434972477388	0.16421426303743
1	175	5.703610686869	0.15647982462368
1	175	5.802777353536	0.17089517764553
1	179	5.829985581263	0.17009761908453
1	179	5.92915224793	0.18397795970205
1	183	5.968194543431	0.18277442623543
1	183	6.067361210098	0.19613139201659
1	213	6.866704164773	0.17330002450212
1	213	6.96587083144	0.1850689881949
1	217	6.975416486987	0.1848157266417
1	217	7.074583153654	0.19624242208828
1	287	8.896626084812	0.15605166723912
1	287	8.995792751479	0.1653550766563
1	291	9.110830498526	0.16326722358029
1	291	9.209997165193	0.17227656406545
1	295	9.394362061485	0.16889562657767
1	295	9.493528728152	0.1775771034789
2	0	0	0
2	24	0.752674113313	1
2	29	0.85184077998	0
2	69	2.892732995892	1
2	74	2.991899662559	0
2	77	3.146629343059	1
2	79	3.245796009726	0
2	186	6.140216487713	1
2	191	6.23938315438	0
2	192	6.301498444846	1
2	199	6.400665111513	0
2	229	7.499577579064	1
2	235	7.598744245731	0
2	247	7.991856803035	1
2	253	8.091023469702	0
3	0	0	0
3	21	0.653882567221	1
3	26	0.753049233888	0
3	63	2.79336349183	1
3	68	2.892530158497	0
3	101	3.913962032846	1
3	105	4.013128699513	0
3	112	4.219331981543	1
3	116	4.31849864821	0
3	126	4.562547138947	1
3	132	4.661713805614	0
3	149	5.053484616291	1
3	152	5.152651282958	0
3	251	8.030566304236	1
3	255	8.129732970903	0
3	257	8.237368079059	1
3	261	8.336534745726	0
3	292	9.394361159078	1
3	294	9.493527825745	0
4	0	0	0
4	27	0.8394328529	1
4	32	0.938599519567	0
4	137	4.783821388709	1
4	142	4.882988055376	0
4	176	5.829984732551	1
4	178	5.929151399218	0
4	259	8.255502460912	1
4	262	8.354669127579	0
4	272	8.588970646355	1
4	275	8.688137313022	0
4	305	9.746880028116	1
4	312	9.846046694783	0
5	0	0	0
5	14	0.498872009016	1
5	17	0.598038675683	0
5	49	2.10382293432	1
5	52	2.202989600987	0
5	87	3.719525574977	1
5	96	3.818692241644	0
5	103	3.930638402277	1
5	106	4.029805068944	0
5	162	5.518059894696	1
5	168	5.617226561363	0
5	189	6.214972638181	1
5	196	6.314139304848	0
5	308	9.814352989303	1
5	315	9.91351965597	0
6	0	0	0
6	56	2.598254085849	1
6	59	2.697420752516	0
6	65	2.823295161954	1
6	73	2.922461828621	0
6	94	3.794783023663	1
6	99	3.89394969033	0
6	110	4.201230042483	1
6	115	4.30039670915	0
6	143	4.909479132333	1
6	148	5.008645799	0
6	180	5.968193776368	1
6	182	6.067360443035	0
6	220	7.263468242492	1
6	223	7.362634909159	0
6	239	7.741596873442	1
6	244	7.840763540109	0
6	264	8.418087850916	1
6	268	8.517254517583	0
6	296	9.525273763003	1
6	300	9.62444042967	0
6	313	9.904717438149	1
7	0	0	0
7	43	1.808369264275	1
7	45	1.907535930942	0
7	54	2.526465390569	1
7	58	2.625632057236	0
7	90	3.761570998946	1
7	97	3.860737665613	0
7	118	4.396303385841	1
7	120	4.495470052508	0
7	158	5.33580475812	1
7	160	5.434971424787	0
7	203	6.580110379487	1
7	207	6.679277046154	0
7	210	6.866703112172	1
7	212	6.965869778839	0
7	225	7.40927380746	1
7	231	7.508440474127	0
7	266	8.444502033898	1
7	271	8.543668700565	0
7	279	8.719582245991	1
7	282	8.818748912658	0
7	288	9.110829445925	1
7	290	9.209996112592	0
7	310	9.837937693583	1
7	316	9.93710436025	0
8	0	0	0
8	1	0.073685355465	1
8	5	0.172852022132	0
8	8	0.193277610531	1
8	10	0.292444277198	0
8	47	2.079931940637	1
8	51	2.179098607304	0
8	71	2.914063028494	1
8	75	3.013229695161	0
8	92	3.784064353628	1
8	98	3.883231020295	0
8	124	4.524925722326	1
8	129	4.624092388993	0
8	130	4.643060958194	1
8	133	4.742227624861	0
8	172	5.703608563927	1
8	174	5.802775230594	0
8	197	6.377307637335	1
8	201	6.476474304002	0
8	233	7.587071749689	1
8	238	7.686238416356	0
8	269	8.530666209884	1
8	274	8.629832876551	0
9	0	0	0
9	12	0.411577996243	1
9	16	0.51074466291	0
9	85	3.660914591586	1
9	89	3.760081258253	0
9	122	4.497908550009	1
9	128	4.597075216676	0
9	135	4.742353243968	1
9	139	4.841519910635	0
9	146	5.003656400081	1
9	151	5.102823066748	0
9	166	5.591380116056	1
9	170	5.690546782723	0
9	205	6.64004136622	1
9	208	6.739208032887	0
9	214	6.97541473897	1
9	216	7.074581405637	0
9	218	7.212610094065	1
9	222	7.311776760732	0
9	277	8.700819450523	1
9	281	8.79998611719	0
9	303	9.671901970816	1
9	307	9.771068637483	0
9	317	9.944196093629	1
10	0	0	0
10	3	0.091161026124	1
10	6	0.190327692791	0
10	19	0.649575830046	1
10	23	0.748742496713	0
10	30	0.899973350378	1
10	33	0.999140017045	0
10	39	1.640849189723	1
10	41	1.74001585639	0
10	81	3.354017931283	1
10	83	3.45318459795	0
10	140	4.874549278044	1
10	145	4.973715944711	0
10	154	5.225157876786	1
10	156	5.324324543453	0
10	236	7.653237917667	1
10	241	7.752404584334	0
10	242	7.791587740747	1
10	245	7.890754407414	0
10	284	8.896625412581	1
10	286	8.995792079248	0
10	298	9.530856756331	1
10	301	9.630023422998	0
11	0	0	0
11	35	1.044612508308	1
11	37	1.143779174975	0
11	61	2.749018732037	1
11	67	2.848185398704	0
11	108	4.123413100928	1
11	114	4.222579767595	0
11	164	5.557869952219	1
11	169	5.657036618886	0
11	184	6.102555113937	1
11	188	6.201721780604	0
11	194	6.306283006379	1
11	200	6.405449673046	0
11	227	7.464283804534	1
11	232	7.563450471201	0
11	249	8.015552531426	1
11	254	8.114719198093	0

