version 3
run PureAlohaExperiment-3-20250227-23:00:12-19156
attr configname PureAlohaExperiment
attr datetime 20250227-23:00:12
attr datetimef 20250227-230012
attr experiment PureAlohaExperiment
attr inifile omnetpp.ini
attr iterationvars "$numHosts=10, $iaMean=4"
attr iterationvarsd numHosts=10/iaMean=4
attr iterationvarsf numHosts=10,iaMean=4-
attr measurement "$numHosts=10, $iaMean=4"
attr network Aloha
attr processid 19156
attr repetition 0
attr replication #0
attr resultdir results
attr runnumber 3
attr seedset 3
itervar iaMean 4
itervar numHosts 10
config description "Channel utilization in the function of packet generation frequency"
config repeat 1
config sim-time-limit 10s
config Aloha.numHosts 10
config Aloha.host[*].iaTime exponential(4s)
config network Aloha
config Aloha.numHosts 20
config Aloha.slotTime 0s
config Aloha.txRate 9.6kbps
config Aloha.host[*].pkLenBits 952b
config **.x "uniform(0m, 1000m)"
config **.y "uniform(0m, 1000m)"
config **.animationHoldTimeOnCollision 0s
config **.idleAnimationSpeed 1
config **.transmissionEdgeAnimationSpeed 1e-6
config **.midTransmissionAnimationSpeed 1e-1

vector 0 Aloha.server serverChannelState:vector ETV
attr enum IDLE=0,TRANSMISSION=1,COLLISION=2
attr recordingmode vector
attr source channelState
attr title "Channel state"
vector 1 Aloha.server channelUtilization:vector ETV
attr interpolationmode linear
attr recordingmode vector
attr source timeavg(receive)
attr title "channel utilization"
vector 2 Aloha.host[0] radioState:vector ETV
attr enum IDLE=0,TRANSMIT=1
attr recordingmode vector
attr source state
attr title "Radio state"
vector 3 Aloha.host[1] radioState:vector ETV
attr enum IDLE=0,TRANSMIT=1
attr recordingmode vector
attr source state
attr title "Radio state"
vector 4 Aloha.host[2] radioState:vector ETV
attr enum IDLE=0,TRANSMIT=1
attr recordingmode vector
attr source state
attr title "Radio state"
vector 5 Aloha.host[3] radioState:vector ETV
attr enum IDLE=0,TRANSMIT=1
attr recordingmode vector
attr source state
attr title "Radio state"
vector 6 Aloha.host[4] radioState:vector ETV
attr enum IDLE=0,TRANSMIT=1
attr recordingmode vector
attr source state
attr title "Radio state"
vector 7 Aloha.host[5] radioState:vector ETV
attr enum IDLE=0,TRANSMIT=1
attr recordingmode vector
attr source state
attr title "Radio state"
vector 8 Aloha.host[6] radioState:vector ETV
attr enum IDLE=0,TRANSMIT=1
attr recordingmode vector
attr source state
attr title "Radio state"
vector 9 Aloha.host[7] radioState:vector ETV
attr enum IDLE=0,TRANSMIT=1
attr recordingmode vector
attr source state
attr title "Radio state"
vector 10 Aloha.host[8] radioState:vector ETV
attr enum IDLE=0,TRANSMIT=1
attr recordingmode vector
attr source state
attr title "Radio state"
vector 11 Aloha.host[9] radioState:vector ETV
attr enum IDLE=0,TRANSMIT=1
attr recordingmode vector
attr source state
attr title "Radio state"
0	0	0	0
0	2	0.971229188507	1
0	4	1.070395855174	0
0	6	1.16749237692	1
0	8	1.266659043587	0
0	10	1.305622271365	1
0	12	1.404788938032	0
0	14	1.747236781992	1
0	16	1.846403448659	0
0	18	2.414486948021	1
0	20	2.441358081368	2
0	23	2.540524748035	0
0	25	2.714107382463	1
0	27	2.81327404913	0
0	29	3.574821129624	1
0	31	3.673987796291	0
0	33	3.714035188057	1
0	35	3.813201854724	0
0	37	4.189519841096	1
0	39	4.288686507763	0
0	41	4.511196536651	1
0	43	4.599595899137	2
0	46	4.67830728047	2
0	49	4.777473947137	0
0	51	4.958539775481	1
0	53	5.057706442148	0
0	55	5.146850032829	1
0	57	5.246016699496	0
0	59	5.75189886402	1
0	61	5.851065530687	0
0	63	5.92854246764	1
0	65	6.027709134307	0
0	67	6.343600177089	1
0	69	6.442766843756	0
0	71	6.89273432495	1
0	73	6.991900991617	0
0	75	7.073428841802	1
0	77	7.099990117535	2
0	80	7.199156784202	0
0	82	8.23231434384	1
0	84	8.276065714091	2
0	87	8.375232380758	0
0	89	8.662385890191	1
0	91	8.761552556858	0
0	93	9.174456160595	1
0	95	9.273622827262	0
0	97	9.335790729806	1
0	99	9.379130872483	2
0	102	9.47829753915	0
0	104	9.5228701543	1
0	106	9.622036820967	0
0	108	9.705356608442	1
0	110	9.781274361454	2
0	113	9.880441028121	0
1	4	0.971229188507	0
1	4	1.070395855174	0.092644853011767
1	8	1.16749237692	0.08493988365784
1	8	1.266659043587	0.15657988970129
1	12	1.305622271365	0.15190713093968
1	12	1.404788938032	0.21177558560347
1	16	1.747236781992	0.17026885140423
1	16	1.846403448659	0.21483206552506
1	27	2.714107382463	0.14614995310467
1	27	2.81327404913	0.17624778982635
1	31	3.574821129624	0.13870157844433
1	31	3.673987796291	0.1619493675517
1	35	3.714035188057	0.16020311329179
1	35	3.813201854724	0.182042989885
1	39	4.189519841096	0.16569122309907
1	39	4.288686507763	0.18498282210648
1	53	4.958539775481	0.15999333861531
1	53	5.057706442148	0.17646338517503
1	57	5.146850032829	0.17340703426566
1	57	5.246016699496	0.18903231222372
1	61	5.75189886402	0.17240683296315
1	61	5.851065530687	0.18643327913795
1	65	5.92854246764	0.18399688275679
1	65	6.027709134307	0.19742160304834
1	69	6.343600177089	0.18759063730118
1	69	6.442766843756	0.20009519169864
1	73	6.89273432495	0.1870326935429
1	73	6.991900991617	0.19856307104499
1	91	8.662385890191	0.16027147150188
1	91	8.761552556858	0.16977584627289
1	95	9.174456160595	0.16213495099513
1	95	9.273622827262	0.17109458689733
1	106	9.5228701543	0.16661643401234
1	106	9.622036820967	0.17520545438628
2	0	0	0
2	19	2.44135546238	1
2	22	2.540522129047	0
2	42	4.599593280149	1
2	47	4.698759946816	0
2	81	8.232311724852	1
2	85	8.331478391519	0
2	103	9.522867535312	1
2	105	9.622034201979	0
2	107	9.705353989454	1
2	111	9.804520656121	0
3	0	0	0
3	17	2.414486064831	1
3	21	2.513652731498	0
3	32	3.714034304867	1
3	34	3.813200971534	0
3	54	5.146849149639	1
3	56	5.246015816306	0
3	62	5.92854158445	1
3	64	6.027708251117	0
3	92	9.174455277405	1
3	94	9.273621944072	0
4	0	0	0
4	36	4.189518172655	1
4	38	4.288684839322	0
4	58	5.751897195579	1
4	60	5.851063862246	0
4	83	8.27606404565	1
4	86	8.375230712317	0
4	98	9.379129204042	1
4	101	9.478295870709	0
5	0	0	0
5	1	0.97122751646	1
5	3	1.070394183127	0
5	5	1.167490704873	1
5	7	1.26665737154	0
5	74	7.073427169755	1
5	78	7.172593836422	0
6	0	0	0
6	9	1.305621105949	1
6	11	1.404787772616	0
6	45	4.678306115054	1
6	48	4.777472781721	0
6	76	7.099988952119	1
6	79	7.199155618786	0
6	88	8.662384724775	1
6	90	8.761551391442	0
7	0	0	0
7	13	1.747235360088	1
7	15	1.846402026755	0
8	0	0	0
8	40	4.511195247276	1
8	44	4.610361913943	0
8	96	9.335789440431	1
8	100	9.434956107098	0
9	0	0	0
9	24	2.714105715136	1
9	26	2.813272381803	0
9	50	4.958538108154	1
9	52	5.057704774821	0
9	66	6.343598509762	1
9	68	6.442765176429	0
10	0	0	0
10	28	3.574819015773	1
10	30	3.67398568244	0
10	70	6.892732211099	1
10	72	6.991898877766	0
11	0	0	0
11	109	9.781272606097	1
11	112	9.880439272764	0

